n -t * -s 0  -x 0 -y 0 -Z 0 -z 50  -v circle -c black
n -t * -s 1  -x 0 -y 0 -Z 0 -z 75  -v circle -c black
n -t * -s 2  -x 0 -y 0 -Z 0 -z 50  -v circle -c black
n -t * -s 3  -x 0 -y 0 -Z 0 -z 50  -v circle -c black
n -t * -s 4  -x 0 -y 0 -Z 0 -z 50  -v circle -c black
n -t * -s 5  -x 0 -y 0 -Z 0 -z 50  -v circle -c black
n -t * -s 6  -x 0 -y 0 -Z 0 -z 50  -v circle -c black
n -t * -s 7  -x 0 -y 0 -Z 0 -z 50  -v circle -c black
n -t * -s 8  -x 0 -y 0 -Z 0 -z 50  -v circle -c black
n -t * -s 9  -x 0 -y 0 -Z 0 -z 50  -v circle -c black
n -t * -s 10  -x 0 -y 0 -Z 0 -z 50  -v circle -c black
n -t * -s 11  -x 0 -y 0 -Z 0 -z 50  -v circle -c black
n -t * -s 12  -x 0 -y 0 -Z 0 -z 50  -v circle -c black
n -t * -s 13  -x 0 -y 0 -Z 0 -z 50  -v circle -c black
n -t * -s 14  -x 0 -y 0 -Z 0 -z 50  -v circle -c black
n -t * -s 15  -x 0 -y 0 -Z 0 -z 50  -v circle -c black
n -t * -s 16  -x 0 -y 0 -Z 0 -z 50  -v circle -c black
n -t * -s 17  -x 0 -y 0 -Z 0 -z 50  -v circle -c black
n -t * -s 18  -x 0 -y 0 -Z 0 -z 50  -v circle -c black
n -t * -s 19  -x 0 -y 0 -Z 0 -z 50  -v circle -c black
V -t * -v 1.0a5 -a 0
W -t * -x 1700 -y 800
A -t * -n 1 -p 0 -o 0xffffffff -c 31 -a 1
A -t * -h 1 -m 2147483647 -s 0
n -t 0.000000 -s 0 -x 130.371000 -y 501.711000 -U -0.222458 -V -0.974942 -T 496.143214
n -t 0.000000 -s 1 -x 245.211000 -y 741.204000 -U -0.297324 -V -0.954777 -T 757.458923
n -t 0.000000 -s 2 -x 394.120000 -y 525.654000 -U -0.593260 -V -0.805011 -T 630.617442
n -t 0.000000 -s 3 -x 237.225000 -y 322.432000 -U -0.580837 -V -0.814020 -T 373.986020
n -t 0.000000 -s 4 -x 330.610000 -y 138.966000 -U -0.931829 -V -0.362898 -T 333.333685
n -t 0.000000 -s 5 -x 590.951000 -y 155.806000 -U -0.972086 -V -0.234625 -T 587.346182
n -t 0.000000 -s 6 -x 630.062000 -y 356.376000 -U -0.874490 -V -0.485043 -T 697.620213
n -t 0.000000 -s 7 -x 563.579000 -y 625.915000 -U -0.666560 -V -0.745451 -T 815.499097
n -t 0.000000 -s 8 -x 785.980000 -y 808.903000 -U -0.695698 -V -0.718334 -T 1101.023576
n -t 0.000000 -s 9 -x 753.514000 -y 590.850000 -U -0.788133 -V -0.615505 -T 930.698614
n -t 0.000000 -s 10 -x 834.408000 -y 327.070000 -U -0.934938 -V -0.354811 -T 871.082462
n -t 0.000000 -s 11 -x 840.680000 -y 106.297000 -U -0.994262 -V -0.106973 -T 825.416272
n -t 0.000000 -s 12 -x 1009.410000 -y 237.505000 -U -0.976263 -V -0.216588 -T 1013.466622
n -t 0.000000 -s 13 -x 990.610000 -y 488.033000 -U -0.900020 -V -0.435849 -T 1078.431636
n -t 0.000000 -s 14 -x 944.329000 -y 669.452000 -U -0.817391 -V -0.576084 -T 1130.828815
n -t 0.000000 -s 15 -x 1246.720000 -y 644.920000 -U -0.890455 -V -0.455071 -T 1377.632260
n -t 0.000000 -s 16 -x 1219.120000 -y 415.027000 -U -0.949318 -V -0.314318 -T 1263.138636
n -t 0.000000 -s 17 -x 1186.730000 -y 156.366000 -U -0.993041 -V -0.117768 -T 1174.905972
n -t 0.000000 -s 18 -x 1420.030000 -y 247.769000 -U -0.986799 -V -0.161951 -T 1418.759245
n -t 0.000000 -s 19 -x 1475.030000 -y 494.910000 -U -0.950258 -V -0.311463 -T 1531.194125
+ -t 0.008749440 -s 0 -d -1 -p message -e 32 -c 2 -a 0 -i 0 -k RTR 
- -t 0.008749440 -s 0 -d -1 -p message -e 32 -c 2 -a 0 -i 0 -k RTR
h -t 0.008749440 -s 0 -d -1 -p message -e 32 -c 2 -a 0 -i 0 -k RTR
+ -t 0.009044440 -s 0 -d -1 -p message -e 84 -c 2 -a 0 -i 0 -k MAC 
- -t 0.009044440 -s 0 -d -1 -p message -e 84 -c 2 -a 0 -i 0 -k MAC
h -t 0.009044440 -s 0 -d -1 -p message -e 84 -c 2 -a 0 -i 0 -k MAC
r -t 0.009717136 -s 3 -d -1 -p message -e 32 -c 2 -a 0 -i 0 -k MAC
r -t 0.009717323 -s 2 -d -1 -p message -e 32 -c 2 -a 0 -i 0 -k MAC
r -t 0.009717325 -s 1 -d -1 -p message -e 32 -c 2 -a 0 -i 0 -k MAC
r -t 0.009717821 -s 4 -d -1 -p message -e 32 -c 2 -a 0 -i 0 -k MAC
r -t 0.009717942 -s 7 -d -1 -p message -e 32 -c 2 -a 0 -i 0 -k MAC
r -t 0.009718175 -s 6 -d -1 -p message -e 32 -c 2 -a 0 -i 0 -k MAC
r -t 0.009718360 -s 5 -d -1 -p message -e 32 -c 2 -a 0 -i 0 -k MAC
r -t 0.009718538 -s 9 -d -1 -p message -e 32 -c 2 -a 0 -i 0 -k MAC
r -t 0.009718853 -s 8 -d -1 -p message -e 32 -c 2 -a 0 -i 0 -k MAC
r -t 0.009718858 -s 10 -d -1 -p message -e 32 -c 2 -a 0 -i 0 -k MAC
r -t 0.009719150 -s 11 -d -1 -p message -e 32 -c 2 -a 0 -i 0 -k MAC
r -t 0.009719210 -s 14 -d -1 -p message -e 32 -c 2 -a 0 -i 0 -k MAC
r -t 0.009719308 -s 13 -d -1 -p message -e 32 -c 2 -a 0 -i 0 -k MAC
r -t 0.009719500 -s 12 -d -1 -p message -e 32 -c 2 -a 0 -i 0 -k MAC
r -t 0.009720081 -s 16 -d -1 -p message -e 32 -c 2 -a 0 -i 0 -k MAC
r -t 0.009720145 -s 17 -d -1 -p message -e 32 -c 2 -a 0 -i 0 -k MAC
r -t 0.009720192 -s 15 -d -1 -p message -e 32 -c 2 -a 0 -i 0 -k MAC
r -t 0.009720821 -s 18 -d -1 -p message -e 32 -c 2 -a 0 -i 0 -k MAC
r -t 0.009720922 -s 19 -d -1 -p message -e 32 -c 2 -a 0 -i 0 -k MAC
r -t 0.009742136 -s 3 -d -1 -p message -e 32 -c 2 -a 0 -i 0 -k RTR
r -t 0.009742323 -s 2 -d -1 -p message -e 32 -c 2 -a 0 -i 0 -k RTR
r -t 0.009742325 -s 1 -d -1 -p message -e 32 -c 2 -a 0 -i 0 -k RTR
r -t 0.009742821 -s 4 -d -1 -p message -e 32 -c 2 -a 0 -i 0 -k RTR
r -t 0.009742942 -s 7 -d -1 -p message -e 32 -c 2 -a 0 -i 0 -k RTR
r -t 0.009743175 -s 6 -d -1 -p message -e 32 -c 2 -a 0 -i 0 -k RTR
r -t 0.009743360 -s 5 -d -1 -p message -e 32 -c 2 -a 0 -i 0 -k RTR
r -t 0.009743538 -s 9 -d -1 -p message -e 32 -c 2 -a 0 -i 0 -k RTR
r -t 0.009743853 -s 8 -d -1 -p message -e 32 -c 2 -a 0 -i 0 -k RTR
r -t 0.009743858 -s 10 -d -1 -p message -e 32 -c 2 -a 0 -i 0 -k RTR
r -t 0.009744150 -s 11 -d -1 -p message -e 32 -c 2 -a 0 -i 0 -k RTR
r -t 0.009744210 -s 14 -d -1 -p message -e 32 -c 2 -a 0 -i 0 -k RTR
r -t 0.009744308 -s 13 -d -1 -p message -e 32 -c 2 -a 0 -i 0 -k RTR
r -t 0.009744500 -s 12 -d -1 -p message -e 32 -c 2 -a 0 -i 0 -k RTR
r -t 0.009745081 -s 16 -d -1 -p message -e 32 -c 2 -a 0 -i 0 -k RTR
r -t 0.009745145 -s 17 -d -1 -p message -e 32 -c 2 -a 0 -i 0 -k RTR
r -t 0.009745192 -s 15 -d -1 -p message -e 32 -c 2 -a 0 -i 0 -k RTR
r -t 0.009745821 -s 18 -d -1 -p message -e 32 -c 2 -a 0 -i 0 -k RTR
r -t 0.009745922 -s 19 -d -1 -p message -e 32 -c 2 -a 0 -i 0 -k RTR
+ -t 0.033595809 -s 2 -d -1 -p message -e 32 -c 2 -a 0 -i 1 -k RTR 
- -t 0.033595809 -s 2 -d -1 -p message -e 32 -c 2 -a 0 -i 1 -k RTR
h -t 0.033595809 -s 2 -d -1 -p message -e 32 -c 2 -a 0 -i 1 -k RTR
+ -t 0.033850809 -s 2 -d -1 -p message -e 84 -c 2 -a 0 -i 1 -k MAC 
- -t 0.033850809 -s 2 -d -1 -p message -e 84 -c 2 -a 0 -i 1 -k MAC
h -t 0.033850809 -s 2 -d -1 -p message -e 84 -c 2 -a 0 -i 1 -k MAC
r -t 0.034523466 -s 7 -d -1 -p message -e 32 -c 2 -a 0 -i 1 -k MAC
r -t 0.034523665 -s 3 -d -1 -p message -e 32 -c 2 -a 0 -i 1 -k MAC
r -t 0.034523683 -s 1 -d -1 -p message -e 32 -c 2 -a 0 -i 1 -k MAC
r -t 0.034523692 -s 0 -d -1 -p message -e 32 -c 2 -a 0 -i 1 -k MAC
r -t 0.034523777 -s 6 -d -1 -p message -e 32 -c 2 -a 0 -i 1 -k MAC
r -t 0.034524027 -s 9 -d -1 -p message -e 32 -c 2 -a 0 -i 1 -k MAC
r -t 0.034524115 -s 4 -d -1 -p message -e 32 -c 2 -a 0 -i 1 -k MAC
r -t 0.034524206 -s 5 -d -1 -p message -e 32 -c 2 -a 0 -i 1 -k MAC
r -t 0.034524419 -s 10 -d -1 -p message -e 32 -c 2 -a 0 -i 1 -k MAC
r -t 0.034524421 -s 8 -d -1 -p message -e 32 -c 2 -a 0 -i 1 -k MAC
r -t 0.034524705 -s 14 -d -1 -p message -e 32 -c 2 -a 0 -i 1 -k MAC
r -t 0.034524801 -s 13 -d -1 -p message -e 32 -c 2 -a 0 -i 1 -k MAC
r -t 0.034524851 -s 11 -d -1 -p message -e 32 -c 2 -a 0 -i 1 -k MAC
r -t 0.034525074 -s 12 -d -1 -p message -e 32 -c 2 -a 0 -i 1 -k MAC
r -t 0.034525584 -s 16 -d -1 -p message -e 32 -c 2 -a 0 -i 1 -k MAC
r -t 0.034525679 -s 15 -d -1 -p message -e 32 -c 2 -a 0 -i 1 -k MAC
r -t 0.034525724 -s 17 -d -1 -p message -e 32 -c 2 -a 0 -i 1 -k MAC
r -t 0.034526352 -s 18 -d -1 -p message -e 32 -c 2 -a 0 -i 1 -k MAC
r -t 0.034526414 -s 19 -d -1 -p message -e 32 -c 2 -a 0 -i 1 -k MAC
r -t 0.034548466 -s 7 -d -1 -p message -e 32 -c 2 -a 0 -i 1 -k RTR
r -t 0.034548665 -s 3 -d -1 -p message -e 32 -c 2 -a 0 -i 1 -k RTR
r -t 0.034548683 -s 1 -d -1 -p message -e 32 -c 2 -a 0 -i 1 -k RTR
r -t 0.034548692 -s 0 -d -1 -p message -e 32 -c 2 -a 0 -i 1 -k RTR
r -t 0.034548777 -s 6 -d -1 -p message -e 32 -c 2 -a 0 -i 1 -k RTR
r -t 0.034549027 -s 9 -d -1 -p message -e 32 -c 2 -a 0 -i 1 -k RTR
r -t 0.034549115 -s 4 -d -1 -p message -e 32 -c 2 -a 0 -i 1 -k RTR
r -t 0.034549206 -s 5 -d -1 -p message -e 32 -c 2 -a 0 -i 1 -k RTR
r -t 0.034549419 -s 10 -d -1 -p message -e 32 -c 2 -a 0 -i 1 -k RTR
r -t 0.034549421 -s 8 -d -1 -p message -e 32 -c 2 -a 0 -i 1 -k RTR
r -t 0.034549705 -s 14 -d -1 -p message -e 32 -c 2 -a 0 -i 1 -k RTR
r -t 0.034549801 -s 13 -d -1 -p message -e 32 -c 2 -a 0 -i 1 -k RTR
r -t 0.034549851 -s 11 -d -1 -p message -e 32 -c 2 -a 0 -i 1 -k RTR
r -t 0.034550074 -s 12 -d -1 -p message -e 32 -c 2 -a 0 -i 1 -k RTR
r -t 0.034550584 -s 16 -d -1 -p message -e 32 -c 2 -a 0 -i 1 -k RTR
r -t 0.034550679 -s 15 -d -1 -p message -e 32 -c 2 -a 0 -i 1 -k RTR
r -t 0.034550724 -s 17 -d -1 -p message -e 32 -c 2 -a 0 -i 1 -k RTR
r -t 0.034551352 -s 18 -d -1 -p message -e 32 -c 2 -a 0 -i 1 -k RTR
r -t 0.034551414 -s 19 -d -1 -p message -e 32 -c 2 -a 0 -i 1 -k RTR
+ -t 0.093987367 -s 13 -d -1 -p message -e 32 -c 2 -a 0 -i 2 -k RTR 
- -t 0.093987367 -s 13 -d -1 -p message -e 32 -c 2 -a 0 -i 2 -k RTR
h -t 0.093987367 -s 13 -d -1 -p message -e 32 -c 2 -a 0 -i 2 -k RTR
+ -t 0.094422367 -s 13 -d -1 -p message -e 84 -c 2 -a 0 -i 2 -k MAC 
- -t 0.094422367 -s 13 -d -1 -p message -e 84 -c 2 -a 0 -i 2 -k MAC
h -t 0.094422367 -s 13 -d -1 -p message -e 84 -c 2 -a 0 -i 2 -k MAC
r -t 0.095094992 -s 14 -d -1 -p message -e 32 -c 2 -a 0 -i 2 -k MAC
r -t 0.095095115 -s 10 -d -1 -p message -e 32 -c 2 -a 0 -i 2 -k MAC
r -t 0.095095167 -s 16 -d -1 -p message -e 32 -c 2 -a 0 -i 2 -k MAC
r -t 0.095095205 -s 12 -d -1 -p message -e 32 -c 2 -a 0 -i 2 -k MAC
r -t 0.095095229 -s 9 -d -1 -p message -e 32 -c 2 -a 0 -i 2 -k MAC
r -t 0.095095369 -s 15 -d -1 -p message -e 32 -c 2 -a 0 -i 2 -k MAC
r -t 0.095095636 -s 8 -d -1 -p message -e 32 -c 2 -a 0 -i 2 -k MAC
r -t 0.095095647 -s 6 -d -1 -p message -e 32 -c 2 -a 0 -i 2 -k MAC
r -t 0.095095652 -s 17 -d -1 -p message -e 32 -c 2 -a 0 -i 2 -k MAC
r -t 0.095095734 -s 11 -d -1 -p message -e 32 -c 2 -a 0 -i 2 -k MAC
r -t 0.095095863 -s 7 -d -1 -p message -e 32 -c 2 -a 0 -i 2 -k MAC
r -t 0.095095982 -s 19 -d -1 -p message -e 32 -c 2 -a 0 -i 2 -k MAC
r -t 0.095096008 -s 18 -d -1 -p message -e 32 -c 2 -a 0 -i 2 -k MAC
r -t 0.095096100 -s 5 -d -1 -p message -e 32 -c 2 -a 0 -i 2 -k MAC
r -t 0.095096360 -s 2 -d -1 -p message -e 32 -c 2 -a 0 -i 2 -k MAC
r -t 0.095096856 -s 4 -d -1 -p message -e 32 -c 2 -a 0 -i 2 -k MAC
r -t 0.095096939 -s 3 -d -1 -p message -e 32 -c 2 -a 0 -i 2 -k MAC
r -t 0.095096991 -s 1 -d -1 -p message -e 32 -c 2 -a 0 -i 2 -k MAC
r -t 0.095097235 -s 0 -d -1 -p message -e 32 -c 2 -a 0 -i 2 -k MAC
r -t 0.095119992 -s 14 -d -1 -p message -e 32 -c 2 -a 0 -i 2 -k RTR
r -t 0.095120115 -s 10 -d -1 -p message -e 32 -c 2 -a 0 -i 2 -k RTR
r -t 0.095120167 -s 16 -d -1 -p message -e 32 -c 2 -a 0 -i 2 -k RTR
r -t 0.095120205 -s 12 -d -1 -p message -e 32 -c 2 -a 0 -i 2 -k RTR
r -t 0.095120229 -s 9 -d -1 -p message -e 32 -c 2 -a 0 -i 2 -k RTR
r -t 0.095120369 -s 15 -d -1 -p message -e 32 -c 2 -a 0 -i 2 -k RTR
r -t 0.095120636 -s 8 -d -1 -p message -e 32 -c 2 -a 0 -i 2 -k RTR
r -t 0.095120647 -s 6 -d -1 -p message -e 32 -c 2 -a 0 -i 2 -k RTR
r -t 0.095120652 -s 17 -d -1 -p message -e 32 -c 2 -a 0 -i 2 -k RTR
r -t 0.095120734 -s 11 -d -1 -p message -e 32 -c 2 -a 0 -i 2 -k RTR
r -t 0.095120863 -s 7 -d -1 -p message -e 32 -c 2 -a 0 -i 2 -k RTR
r -t 0.095120982 -s 19 -d -1 -p message -e 32 -c 2 -a 0 -i 2 -k RTR
r -t 0.095121008 -s 18 -d -1 -p message -e 32 -c 2 -a 0 -i 2 -k RTR
r -t 0.095121100 -s 5 -d -1 -p message -e 32 -c 2 -a 0 -i 2 -k RTR
r -t 0.095121360 -s 2 -d -1 -p message -e 32 -c 2 -a 0 -i 2 -k RTR
r -t 0.095121856 -s 4 -d -1 -p message -e 32 -c 2 -a 0 -i 2 -k RTR
r -t 0.095121939 -s 3 -d -1 -p message -e 32 -c 2 -a 0 -i 2 -k RTR
r -t 0.095121991 -s 1 -d -1 -p message -e 32 -c 2 -a 0 -i 2 -k RTR
r -t 0.095122235 -s 0 -d -1 -p message -e 32 -c 2 -a 0 -i 2 -k RTR
n -t 0.1 -s 0 -S COLOR -c black -o black -i black -I black
n -t 0.1 -s 1 -S COLOR -c black -o black -i black -I black
n -t 0.1 -s 2 -S COLOR -c black -o black -i black -I black
n -t 0.1 -s 3 -S COLOR -c black -o black -i black -I black
n -t 0.1 -s 4 -S COLOR -c black -o black -i black -I black
n -t 0.1 -s 5 -S COLOR -c black -o black -i black -I black
n -t 0.1 -s 7 -S COLOR -c black -o black -i black -I black
n -t 0.1 -s 8 -S COLOR -c black -o black -i black -I black
n -t 0.1 -s 9 -S COLOR -c black -o black -i black -I black
n -t 0.1 -s 10 -S COLOR -c black -o black -i black -I black
n -t 0.1 -s 11 -S COLOR -c black -o black -i black -I black
n -t 0.1 -s 14 -S COLOR -c black -o black -i black -I black
n -t 0.1 -s 15 -S COLOR -c black -o black -i black -I black
n -t 0.1 -s 16 -S COLOR -c black -o black -i black -I black
n -t 0.1 -s 17 -S COLOR -c black -o black -i black -I black
n -t 0.1 -s 18 -S COLOR -c black -o black -i black -I black
n -t 0.1 -s 19 -S COLOR -c black -o black -i black -I black
+ -t 0.183018832 -s 3 -d -1 -p message -e 32 -c 2 -a 0 -i 3 -k RTR 
- -t 0.183018832 -s 3 -d -1 -p message -e 32 -c 2 -a 0 -i 3 -k RTR
h -t 0.183018832 -s 3 -d -1 -p message -e 32 -c 2 -a 0 -i 3 -k RTR
+ -t 0.183233832 -s 3 -d -1 -p message -e 84 -c 2 -a 0 -i 3 -k MAC 
- -t 0.183233832 -s 3 -d -1 -p message -e 84 -c 2 -a 0 -i 3 -k MAC
h -t 0.183233832 -s 3 -d -1 -p message -e 84 -c 2 -a 0 -i 3 -k MAC
r -t 0.183906518 -s 4 -d -1 -p message -e 32 -c 2 -a 0 -i 3 -k MAC
r -t 0.183906528 -s 0 -d -1 -p message -e 32 -c 2 -a 0 -i 3 -k MAC
r -t 0.183906688 -s 2 -d -1 -p message -e 32 -c 2 -a 0 -i 3 -k MAC
r -t 0.183907135 -s 5 -d -1 -p message -e 32 -c 2 -a 0 -i 3 -k MAC
r -t 0.183907146 -s 6 -d -1 -p message -e 32 -c 2 -a 0 -i 3 -k MAC
r -t 0.183907228 -s 1 -d -1 -p message -e 32 -c 2 -a 0 -i 3 -k MAC
r -t 0.183907318 -s 7 -d -1 -p message -e 32 -c 2 -a 0 -i 3 -k MAC
r -t 0.183907772 -s 9 -d -1 -p message -e 32 -c 2 -a 0 -i 3 -k MAC
r -t 0.183907823 -s 10 -d -1 -p message -e 32 -c 2 -a 0 -i 3 -k MAC
r -t 0.183907968 -s 11 -d -1 -p message -e 32 -c 2 -a 0 -i 3 -k MAC
r -t 0.183908277 -s 8 -d -1 -p message -e 32 -c 2 -a 0 -i 3 -k MAC
r -t 0.183908403 -s 13 -d -1 -p message -e 32 -c 2 -a 0 -i 3 -k MAC
r -t 0.183908421 -s 12 -d -1 -p message -e 32 -c 2 -a 0 -i 3 -k MAC
r -t 0.183908458 -s 14 -d -1 -p message -e 32 -c 2 -a 0 -i 3 -k MAC
r -t 0.183909045 -s 17 -d -1 -p message -e 32 -c 2 -a 0 -i 3 -k MAC
r -t 0.183909119 -s 16 -d -1 -p message -e 32 -c 2 -a 0 -i 3 -k MAC
r -t 0.183909364 -s 15 -d -1 -p message -e 32 -c 2 -a 0 -i 3 -k MAC
r -t 0.183909782 -s 18 -d -1 -p message -e 32 -c 2 -a 0 -i 3 -k MAC
r -t 0.183909998 -s 19 -d -1 -p message -e 32 -c 2 -a 0 -i 3 -k MAC
r -t 0.183931518 -s 4 -d -1 -p message -e 32 -c 2 -a 0 -i 3 -k RTR
r -t 0.183931528 -s 0 -d -1 -p message -e 32 -c 2 -a 0 -i 3 -k RTR
r -t 0.183931688 -s 2 -d -1 -p message -e 32 -c 2 -a 0 -i 3 -k RTR
r -t 0.183932135 -s 5 -d -1 -p message -e 32 -c 2 -a 0 -i 3 -k RTR
r -t 0.183932146 -s 6 -d -1 -p message -e 32 -c 2 -a 0 -i 3 -k RTR
r -t 0.183932228 -s 1 -d -1 -p message -e 32 -c 2 -a 0 -i 3 -k RTR
r -t 0.183932318 -s 7 -d -1 -p message -e 32 -c 2 -a 0 -i 3 -k RTR
r -t 0.183932772 -s 9 -d -1 -p message -e 32 -c 2 -a 0 -i 3 -k RTR
r -t 0.183932823 -s 10 -d -1 -p message -e 32 -c 2 -a 0 -i 3 -k RTR
r -t 0.183932968 -s 11 -d -1 -p message -e 32 -c 2 -a 0 -i 3 -k RTR
r -t 0.183933277 -s 8 -d -1 -p message -e 32 -c 2 -a 0 -i 3 -k RTR
r -t 0.183933403 -s 13 -d -1 -p message -e 32 -c 2 -a 0 -i 3 -k RTR
r -t 0.183933421 -s 12 -d -1 -p message -e 32 -c 2 -a 0 -i 3 -k RTR
r -t 0.183933458 -s 14 -d -1 -p message -e 32 -c 2 -a 0 -i 3 -k RTR
r -t 0.183934045 -s 17 -d -1 -p message -e 32 -c 2 -a 0 -i 3 -k RTR
r -t 0.183934119 -s 16 -d -1 -p message -e 32 -c 2 -a 0 -i 3 -k RTR
r -t 0.183934364 -s 15 -d -1 -p message -e 32 -c 2 -a 0 -i 3 -k RTR
r -t 0.183934782 -s 18 -d -1 -p message -e 32 -c 2 -a 0 -i 3 -k RTR
r -t 0.183934998 -s 19 -d -1 -p message -e 32 -c 2 -a 0 -i 3 -k RTR
+ -t 0.189369694 -s 19 -d -1 -p message -e 32 -c 2 -a 0 -i 4 -k RTR 
- -t 0.189369694 -s 19 -d -1 -p message -e 32 -c 2 -a 0 -i 4 -k RTR
h -t 0.189369694 -s 19 -d -1 -p message -e 32 -c 2 -a 0 -i 4 -k RTR
+ -t 0.189544694 -s 19 -d -1 -p message -e 84 -c 2 -a 0 -i 4 -k MAC 
- -t 0.189544694 -s 19 -d -1 -p message -e 84 -c 2 -a 0 -i 4 -k MAC
h -t 0.189544694 -s 19 -d -1 -p message -e 84 -c 2 -a 0 -i 4 -k MAC
r -t 0.190217538 -s 18 -d -1 -p message -e 32 -c 2 -a 0 -i 4 -k MAC
r -t 0.190217587 -s 16 -d -1 -p message -e 32 -c 2 -a 0 -i 4 -k MAC
r -t 0.190217604 -s 15 -d -1 -p message -e 32 -c 2 -a 0 -i 4 -k MAC
r -t 0.190218176 -s 17 -d -1 -p message -e 32 -c 2 -a 0 -i 4 -k MAC
r -t 0.190218309 -s 13 -d -1 -p message -e 32 -c 2 -a 0 -i 4 -k MAC
r -t 0.190218467 -s 12 -d -1 -p message -e 32 -c 2 -a 0 -i 4 -k MAC
r -t 0.190218556 -s 14 -d -1 -p message -e 32 -c 2 -a 0 -i 4 -k MAC
r -t 0.190218901 -s 10 -d -1 -p message -e 32 -c 2 -a 0 -i 4 -k MAC
r -t 0.190219120 -s 9 -d -1 -p message -e 32 -c 2 -a 0 -i 4 -k MAC
r -t 0.190219174 -s 11 -d -1 -p message -e 32 -c 2 -a 0 -i 4 -k MAC
r -t 0.190219218 -s 8 -d -1 -p message -e 32 -c 2 -a 0 -i 4 -k MAC
r -t 0.190219548 -s 6 -d -1 -p message -e 32 -c 2 -a 0 -i 4 -k MAC
r -t 0.190219763 -s 7 -d -1 -p message -e 32 -c 2 -a 0 -i 4 -k MAC
r -t 0.190219850 -s 5 -d -1 -p message -e 32 -c 2 -a 0 -i 4 -k MAC
r -t 0.190220298 -s 2 -d -1 -p message -e 32 -c 2 -a 0 -i 4 -k MAC
r -t 0.190220689 -s 4 -d -1 -p message -e 32 -c 2 -a 0 -i 4 -k MAC
r -t 0.190220860 -s 3 -d -1 -p message -e 32 -c 2 -a 0 -i 4 -k MAC
r -t 0.190220874 -s 1 -d -1 -p message -e 32 -c 2 -a 0 -i 4 -k MAC
r -t 0.190221176 -s 0 -d -1 -p message -e 32 -c 2 -a 0 -i 4 -k MAC
r -t 0.190242538 -s 18 -d -1 -p message -e 32 -c 2 -a 0 -i 4 -k RTR
r -t 0.190242587 -s 16 -d -1 -p message -e 32 -c 2 -a 0 -i 4 -k RTR
r -t 0.190242604 -s 15 -d -1 -p message -e 32 -c 2 -a 0 -i 4 -k RTR
r -t 0.190243176 -s 17 -d -1 -p message -e 32 -c 2 -a 0 -i 4 -k RTR
r -t 0.190243309 -s 13 -d -1 -p message -e 32 -c 2 -a 0 -i 4 -k RTR
r -t 0.190243467 -s 12 -d -1 -p message -e 32 -c 2 -a 0 -i 4 -k RTR
r -t 0.190243556 -s 14 -d -1 -p message -e 32 -c 2 -a 0 -i 4 -k RTR
r -t 0.190243901 -s 10 -d -1 -p message -e 32 -c 2 -a 0 -i 4 -k RTR
r -t 0.190244120 -s 9 -d -1 -p message -e 32 -c 2 -a 0 -i 4 -k RTR
r -t 0.190244174 -s 11 -d -1 -p message -e 32 -c 2 -a 0 -i 4 -k RTR
r -t 0.190244218 -s 8 -d -1 -p message -e 32 -c 2 -a 0 -i 4 -k RTR
r -t 0.190244548 -s 6 -d -1 -p message -e 32 -c 2 -a 0 -i 4 -k RTR
r -t 0.190244763 -s 7 -d -1 -p message -e 32 -c 2 -a 0 -i 4 -k RTR
r -t 0.190244850 -s 5 -d -1 -p message -e 32 -c 2 -a 0 -i 4 -k RTR
r -t 0.190245298 -s 2 -d -1 -p message -e 32 -c 2 -a 0 -i 4 -k RTR
r -t 0.190245689 -s 4 -d -1 -p message -e 32 -c 2 -a 0 -i 4 -k RTR
r -t 0.190245860 -s 3 -d -1 -p message -e 32 -c 2 -a 0 -i 4 -k RTR
r -t 0.190245874 -s 1 -d -1 -p message -e 32 -c 2 -a 0 -i 4 -k RTR
r -t 0.190246176 -s 0 -d -1 -p message -e 32 -c 2 -a 0 -i 4 -k RTR
+ -t 0.237079147 -s 15 -d -1 -p message -e 32 -c 2 -a 0 -i 5 -k RTR 
- -t 0.237079147 -s 15 -d -1 -p message -e 32 -c 2 -a 0 -i 5 -k RTR
h -t 0.237079147 -s 15 -d -1 -p message -e 32 -c 2 -a 0 -i 5 -k RTR
+ -t 0.237734147 -s 15 -d -1 -p message -e 84 -c 2 -a 0 -i 5 -k MAC 
- -t 0.237734147 -s 15 -d -1 -p message -e 84 -c 2 -a 0 -i 5 -k MAC
h -t 0.237734147 -s 15 -d -1 -p message -e 84 -c 2 -a 0 -i 5 -k MAC
r -t 0.238406918 -s 16 -d -1 -p message -e 32 -c 2 -a 0 -i 5 -k MAC
r -t 0.238407057 -s 19 -d -1 -p message -e 32 -c 2 -a 0 -i 5 -k MAC
r -t 0.238407148 -s 13 -d -1 -p message -e 32 -c 2 -a 0 -i 5 -k MAC
r -t 0.238407158 -s 14 -d -1 -p message -e 32 -c 2 -a 0 -i 5 -k MAC
r -t 0.238407591 -s 18 -d -1 -p message -e 32 -c 2 -a 0 -i 5 -k MAC
r -t 0.238407718 -s 12 -d -1 -p message -e 32 -c 2 -a 0 -i 5 -k MAC
r -t 0.238407777 -s 8 -d -1 -p message -e 32 -c 2 -a 0 -i 5 -k MAC
r -t 0.238407787 -s 17 -d -1 -p message -e 32 -c 2 -a 0 -i 5 -k MAC
r -t 0.238407800 -s 9 -d -1 -p message -e 32 -c 2 -a 0 -i 5 -k MAC
r -t 0.238407882 -s 10 -d -1 -p message -e 32 -c 2 -a 0 -i 5 -k MAC
r -t 0.238408395 -s 11 -d -1 -p message -e 32 -c 2 -a 0 -i 5 -k MAC
r -t 0.238408416 -s 6 -d -1 -p message -e 32 -c 2 -a 0 -i 5 -k MAC
r -t 0.238408425 -s 7 -d -1 -p message -e 32 -c 2 -a 0 -i 5 -k MAC
r -t 0.238408874 -s 5 -d -1 -p message -e 32 -c 2 -a 0 -i 5 -k MAC
r -t 0.238409016 -s 2 -d -1 -p message -e 32 -c 2 -a 0 -i 5 -k MAC
r -t 0.238409500 -s 1 -d -1 -p message -e 32 -c 2 -a 0 -i 5 -k MAC
r -t 0.238409635 -s 4 -d -1 -p message -e 32 -c 2 -a 0 -i 5 -k MAC
r -t 0.238409679 -s 3 -d -1 -p message -e 32 -c 2 -a 0 -i 5 -k MAC
r -t 0.238409898 -s 0 -d -1 -p message -e 32 -c 2 -a 0 -i 5 -k MAC
r -t 0.238431918 -s 16 -d -1 -p message -e 32 -c 2 -a 0 -i 5 -k RTR
r -t 0.238432057 -s 19 -d -1 -p message -e 32 -c 2 -a 0 -i 5 -k RTR
r -t 0.238432148 -s 13 -d -1 -p message -e 32 -c 2 -a 0 -i 5 -k RTR
r -t 0.238432158 -s 14 -d -1 -p message -e 32 -c 2 -a 0 -i 5 -k RTR
r -t 0.238432591 -s 18 -d -1 -p message -e 32 -c 2 -a 0 -i 5 -k RTR
r -t 0.238432718 -s 12 -d -1 -p message -e 32 -c 2 -a 0 -i 5 -k RTR
r -t 0.238432777 -s 8 -d -1 -p message -e 32 -c 2 -a 0 -i 5 -k RTR
r -t 0.238432787 -s 17 -d -1 -p message -e 32 -c 2 -a 0 -i 5 -k RTR
r -t 0.238432800 -s 9 -d -1 -p message -e 32 -c 2 -a 0 -i 5 -k RTR
r -t 0.238432882 -s 10 -d -1 -p message -e 32 -c 2 -a 0 -i 5 -k RTR
r -t 0.238433395 -s 11 -d -1 -p message -e 32 -c 2 -a 0 -i 5 -k RTR
r -t 0.238433416 -s 6 -d -1 -p message -e 32 -c 2 -a 0 -i 5 -k RTR
r -t 0.238433425 -s 7 -d -1 -p message -e 32 -c 2 -a 0 -i 5 -k RTR
r -t 0.238433874 -s 5 -d -1 -p message -e 32 -c 2 -a 0 -i 5 -k RTR
r -t 0.238434016 -s 2 -d -1 -p message -e 32 -c 2 -a 0 -i 5 -k RTR
r -t 0.238434500 -s 1 -d -1 -p message -e 32 -c 2 -a 0 -i 5 -k RTR
r -t 0.238434635 -s 4 -d -1 -p message -e 32 -c 2 -a 0 -i 5 -k RTR
r -t 0.238434679 -s 3 -d -1 -p message -e 32 -c 2 -a 0 -i 5 -k RTR
r -t 0.238434898 -s 0 -d -1 -p message -e 32 -c 2 -a 0 -i 5 -k RTR
+ -t 0.328398897 -s 12 -d -1 -p message -e 32 -c 2 -a 0 -i 6 -k RTR 
- -t 0.328398897 -s 12 -d -1 -p message -e 32 -c 2 -a 0 -i 6 -k RTR
h -t 0.328398897 -s 12 -d -1 -p message -e 32 -c 2 -a 0 -i 6 -k RTR
+ -t 0.328973897 -s 12 -d -1 -p message -e 84 -c 2 -a 0 -i 6 -k MAC 
- -t 0.328973897 -s 12 -d -1 -p message -e 84 -c 2 -a 0 -i 6 -k MAC
h -t 0.328973897 -s 12 -d -1 -p message -e 84 -c 2 -a 0 -i 6 -k MAC
r -t 0.329646547 -s 17 -d -1 -p message -e 32 -c 2 -a 0 -i 6 -k MAC
r -t 0.329646552 -s 10 -d -1 -p message -e 32 -c 2 -a 0 -i 6 -k MAC
r -t 0.329646609 -s 11 -d -1 -p message -e 32 -c 2 -a 0 -i 6 -k MAC
r -t 0.329646734 -s 13 -d -1 -p message -e 32 -c 2 -a 0 -i 6 -k MAC
r -t 0.329646812 -s 16 -d -1 -p message -e 32 -c 2 -a 0 -i 6 -k MAC
r -t 0.329647222 -s 6 -d -1 -p message -e 32 -c 2 -a 0 -i 6 -k MAC
r -t 0.329647266 -s 18 -d -1 -p message -e 32 -c 2 -a 0 -i 6 -k MAC
r -t 0.329647318 -s 5 -d -1 -p message -e 32 -c 2 -a 0 -i 6 -k MAC
r -t 0.329647350 -s 9 -d -1 -p message -e 32 -c 2 -a 0 -i 6 -k MAC
r -t 0.329647352 -s 14 -d -1 -p message -e 32 -c 2 -a 0 -i 6 -k MAC
r -t 0.329647468 -s 15 -d -1 -p message -e 32 -c 2 -a 0 -i 6 -k MAC
r -t 0.329647670 -s 19 -d -1 -p message -e 32 -c 2 -a 0 -i 6 -k MAC
r -t 0.329647867 -s 7 -d -1 -p message -e 32 -c 2 -a 0 -i 6 -k MAC
r -t 0.329647941 -s 8 -d -1 -p message -e 32 -c 2 -a 0 -i 6 -k MAC
r -t 0.329648161 -s 2 -d -1 -p message -e 32 -c 2 -a 0 -i 6 -k MAC
r -t 0.329648183 -s 4 -d -1 -p message -e 32 -c 2 -a 0 -i 6 -k MAC
r -t 0.329648486 -s 3 -d -1 -p message -e 32 -c 2 -a 0 -i 6 -k MAC
r -t 0.329648946 -s 1 -d -1 -p message -e 32 -c 2 -a 0 -i 6 -k MAC
r -t 0.329648955 -s 0 -d -1 -p message -e 32 -c 2 -a 0 -i 6 -k MAC
r -t 0.329671547 -s 17 -d -1 -p message -e 32 -c 2 -a 0 -i 6 -k RTR
r -t 0.329671552 -s 10 -d -1 -p message -e 32 -c 2 -a 0 -i 6 -k RTR
r -t 0.329671609 -s 11 -d -1 -p message -e 32 -c 2 -a 0 -i 6 -k RTR
r -t 0.329671734 -s 13 -d -1 -p message -e 32 -c 2 -a 0 -i 6 -k RTR
r -t 0.329671812 -s 16 -d -1 -p message -e 32 -c 2 -a 0 -i 6 -k RTR
r -t 0.329672222 -s 6 -d -1 -p message -e 32 -c 2 -a 0 -i 6 -k RTR
r -t 0.329672266 -s 18 -d -1 -p message -e 32 -c 2 -a 0 -i 6 -k RTR
r -t 0.329672318 -s 5 -d -1 -p message -e 32 -c 2 -a 0 -i 6 -k RTR
r -t 0.329672350 -s 9 -d -1 -p message -e 32 -c 2 -a 0 -i 6 -k RTR
r -t 0.329672352 -s 14 -d -1 -p message -e 32 -c 2 -a 0 -i 6 -k RTR
r -t 0.329672468 -s 15 -d -1 -p message -e 32 -c 2 -a 0 -i 6 -k RTR
r -t 0.329672670 -s 19 -d -1 -p message -e 32 -c 2 -a 0 -i 6 -k RTR
r -t 0.329672867 -s 7 -d -1 -p message -e 32 -c 2 -a 0 -i 6 -k RTR
r -t 0.329672941 -s 8 -d -1 -p message -e 32 -c 2 -a 0 -i 6 -k RTR
r -t 0.329673161 -s 2 -d -1 -p message -e 32 -c 2 -a 0 -i 6 -k RTR
r -t 0.329673183 -s 4 -d -1 -p message -e 32 -c 2 -a 0 -i 6 -k RTR
r -t 0.329673486 -s 3 -d -1 -p message -e 32 -c 2 -a 0 -i 6 -k RTR
r -t 0.329673946 -s 1 -d -1 -p message -e 32 -c 2 -a 0 -i 6 -k RTR
r -t 0.329673955 -s 0 -d -1 -p message -e 32 -c 2 -a 0 -i 6 -k RTR
+ -t 0.356296747 -s 18 -d -1 -p message -e 32 -c 2 -a 0 -i 7 -k RTR 
- -t 0.356296747 -s 18 -d -1 -p message -e 32 -c 2 -a 0 -i 7 -k RTR
h -t 0.356296747 -s 18 -d -1 -p message -e 32 -c 2 -a 0 -i 7 -k RTR
+ -t 0.356851747 -s 18 -d -1 -p message -e 84 -c 2 -a 0 -i 7 -k MAC 
- -t 0.356851747 -s 18 -d -1 -p message -e 84 -c 2 -a 0 -i 7 -k MAC
h -t 0.356851747 -s 18 -d -1 -p message -e 84 -c 2 -a 0 -i 7 -k MAC
r -t 0.357524582 -s 17 -d -1 -p message -e 32 -c 2 -a 0 -i 7 -k MAC
r -t 0.357524590 -s 19 -d -1 -p message -e 32 -c 2 -a 0 -i 7 -k MAC
r -t 0.357524618 -s 16 -d -1 -p message -e 32 -c 2 -a 0 -i 7 -k MAC
r -t 0.357525116 -s 12 -d -1 -p message -e 32 -c 2 -a 0 -i 7 -k MAC
r -t 0.357525191 -s 15 -d -1 -p message -e 32 -c 2 -a 0 -i 7 -k MAC
r -t 0.357525387 -s 13 -d -1 -p message -e 32 -c 2 -a 0 -i 7 -k MAC
r -t 0.357525716 -s 10 -d -1 -p message -e 32 -c 2 -a 0 -i 7 -k MAC
r -t 0.357525734 -s 11 -d -1 -p message -e 32 -c 2 -a 0 -i 7 -k MAC
r -t 0.357525865 -s 14 -d -1 -p message -e 32 -c 2 -a 0 -i 7 -k MAC
r -t 0.357526245 -s 9 -d -1 -p message -e 32 -c 2 -a 0 -i 7 -k MAC
r -t 0.357526404 -s 6 -d -1 -p message -e 32 -c 2 -a 0 -i 7 -k MAC
r -t 0.357526527 -s 5 -d -1 -p message -e 32 -c 2 -a 0 -i 7 -k MAC
r -t 0.357526568 -s 8 -d -1 -p message -e 32 -c 2 -a 0 -i 7 -k MAC
r -t 0.357526867 -s 7 -d -1 -p message -e 32 -c 2 -a 0 -i 7 -k MAC
r -t 0.357527289 -s 2 -d -1 -p message -e 32 -c 2 -a 0 -i 7 -k MAC
r -t 0.357527396 -s 4 -d -1 -p message -e 32 -c 2 -a 0 -i 7 -k MAC
r -t 0.357527697 -s 3 -d -1 -p message -e 32 -c 2 -a 0 -i 7 -k MAC
r -t 0.357527993 -s 1 -d -1 -p message -e 32 -c 2 -a 0 -i 7 -k MAC
r -t 0.357528127 -s 0 -d -1 -p message -e 32 -c 2 -a 0 -i 7 -k MAC
r -t 0.357549582 -s 17 -d -1 -p message -e 32 -c 2 -a 0 -i 7 -k RTR
r -t 0.357549590 -s 19 -d -1 -p message -e 32 -c 2 -a 0 -i 7 -k RTR
r -t 0.357549618 -s 16 -d -1 -p message -e 32 -c 2 -a 0 -i 7 -k RTR
r -t 0.357550116 -s 12 -d -1 -p message -e 32 -c 2 -a 0 -i 7 -k RTR
r -t 0.357550191 -s 15 -d -1 -p message -e 32 -c 2 -a 0 -i 7 -k RTR
r -t 0.357550387 -s 13 -d -1 -p message -e 32 -c 2 -a 0 -i 7 -k RTR
r -t 0.357550716 -s 10 -d -1 -p message -e 32 -c 2 -a 0 -i 7 -k RTR
r -t 0.357550734 -s 11 -d -1 -p message -e 32 -c 2 -a 0 -i 7 -k RTR
r -t 0.357550865 -s 14 -d -1 -p message -e 32 -c 2 -a 0 -i 7 -k RTR
r -t 0.357551245 -s 9 -d -1 -p message -e 32 -c 2 -a 0 -i 7 -k RTR
r -t 0.357551404 -s 6 -d -1 -p message -e 32 -c 2 -a 0 -i 7 -k RTR
r -t 0.357551527 -s 5 -d -1 -p message -e 32 -c 2 -a 0 -i 7 -k RTR
r -t 0.357551568 -s 8 -d -1 -p message -e 32 -c 2 -a 0 -i 7 -k RTR
r -t 0.357551867 -s 7 -d -1 -p message -e 32 -c 2 -a 0 -i 7 -k RTR
r -t 0.357552289 -s 2 -d -1 -p message -e 32 -c 2 -a 0 -i 7 -k RTR
r -t 0.357552396 -s 4 -d -1 -p message -e 32 -c 2 -a 0 -i 7 -k RTR
r -t 0.357552697 -s 3 -d -1 -p message -e 32 -c 2 -a 0 -i 7 -k RTR
r -t 0.357552993 -s 1 -d -1 -p message -e 32 -c 2 -a 0 -i 7 -k RTR
r -t 0.357553127 -s 0 -d -1 -p message -e 32 -c 2 -a 0 -i 7 -k RTR
+ -t 0.477970060 -s 8 -d -1 -p message -e 32 -c 2 -a 0 -i 8 -k RTR 
- -t 0.477970060 -s 8 -d -1 -p message -e 32 -c 2 -a 0 -i 8 -k RTR
h -t 0.477970060 -s 8 -d -1 -p message -e 32 -c 2 -a 0 -i 8 -k RTR
+ -t 0.478205060 -s 8 -d -1 -p message -e 84 -c 2 -a 0 -i 8 -k MAC 
- -t 0.478205060 -s 8 -d -1 -p message -e 84 -c 2 -a 0 -i 8 -k MAC
h -t 0.478205060 -s 8 -d -1 -p message -e 84 -c 2 -a 0 -i 8 -k MAC
r -t 0.478877763 -s 14 -d -1 -p message -e 32 -c 2 -a 0 -i 8 -k MAC
r -t 0.478877795 -s 9 -d -1 -p message -e 32 -c 2 -a 0 -i 8 -k MAC
r -t 0.478878020 -s 7 -d -1 -p message -e 32 -c 2 -a 0 -i 8 -k MAC
r -t 0.478878328 -s 13 -d -1 -p message -e 32 -c 2 -a 0 -i 8 -k MAC
r -t 0.478878656 -s 6 -d -1 -p message -e 32 -c 2 -a 0 -i 8 -k MAC
r -t 0.478878672 -s 2 -d -1 -p message -e 32 -c 2 -a 0 -i 8 -k MAC
r -t 0.478878674 -s 10 -d -1 -p message -e 32 -c 2 -a 0 -i 8 -k MAC
r -t 0.478878690 -s 15 -d -1 -p message -e 32 -c 2 -a 0 -i 8 -k MAC
r -t 0.478878876 -s 1 -d -1 -p message -e 32 -c 2 -a 0 -i 8 -k MAC
r -t 0.478879011 -s 16 -d -1 -p message -e 32 -c 2 -a 0 -i 8 -k MAC
r -t 0.478879105 -s 12 -d -1 -p message -e 32 -c 2 -a 0 -i 8 -k MAC
r -t 0.478879332 -s 5 -d -1 -p message -e 32 -c 2 -a 0 -i 8 -k MAC
r -t 0.478879409 -s 11 -d -1 -p message -e 32 -c 2 -a 0 -i 8 -k MAC
r -t 0.478879473 -s 0 -d -1 -p message -e 32 -c 2 -a 0 -i 8 -k MAC
r -t 0.478879505 -s 3 -d -1 -p message -e 32 -c 2 -a 0 -i 8 -k MAC
r -t 0.478879584 -s 19 -d -1 -p message -e 32 -c 2 -a 0 -i 8 -k MAC
r -t 0.478879612 -s 17 -d -1 -p message -e 32 -c 2 -a 0 -i 8 -k MAC
r -t 0.478879760 -s 4 -d -1 -p message -e 32 -c 2 -a 0 -i 8 -k MAC
r -t 0.478879882 -s 18 -d -1 -p message -e 32 -c 2 -a 0 -i 8 -k MAC
r -t 0.478902763 -s 14 -d -1 -p message -e 32 -c 2 -a 0 -i 8 -k RTR
r -t 0.478902795 -s 9 -d -1 -p message -e 32 -c 2 -a 0 -i 8 -k RTR
r -t 0.478903020 -s 7 -d -1 -p message -e 32 -c 2 -a 0 -i 8 -k RTR
r -t 0.478903328 -s 13 -d -1 -p message -e 32 -c 2 -a 0 -i 8 -k RTR
r -t 0.478903656 -s 6 -d -1 -p message -e 32 -c 2 -a 0 -i 8 -k RTR
r -t 0.478903672 -s 2 -d -1 -p message -e 32 -c 2 -a 0 -i 8 -k RTR
r -t 0.478903674 -s 10 -d -1 -p message -e 32 -c 2 -a 0 -i 8 -k RTR
r -t 0.478903690 -s 15 -d -1 -p message -e 32 -c 2 -a 0 -i 8 -k RTR