M 0.00000 0 (130.37, 501.71, 0.00), (20.00, 18.00), 1.00
M 0.00000 1 (245.21, 741.20, 0.00), (20.00, 18.00), 1.00
M 0.00000 2 (394.12, 525.65, 0.00), (20.00, 18.00), 1.00
M 0.00000 3 (237.22, 322.43, 0.00), (20.00, 18.00), 1.00
M 0.00000 4 (330.61, 138.97, 0.00), (20.00, 18.00), 1.00
M 0.00000 5 (590.95, 155.81, 0.00), (20.00, 18.00), 1.00
M 0.00000 6 (630.06, 356.38, 0.00), (20.00, 18.00), 1.00
M 0.00000 7 (563.58, 625.91, 0.00), (20.00, 18.00), 1.00
M 0.00000 8 (785.98, 808.90, 0.00), (20.00, 18.00), 1.00
M 0.00000 9 (753.51, 590.85, 0.00), (20.00, 18.00), 1.00
M 0.00000 10 (834.41, 327.07, 0.00), (20.00, 18.00), 1.00
M 0.00000 11 (840.68, 106.30, 0.00), (20.00, 18.00), 1.00
M 0.00000 12 (1009.41, 237.50, 0.00), (20.00, 18.00), 1.00
M 0.00000 13 (990.61, 488.03, 0.00), (20.00, 18.00), 1.00
M 0.00000 14 (944.33, 669.45, 0.00), (20.00, 18.00), 1.00
M 0.00000 15 (1246.72, 644.92, 0.00), (20.00, 18.00), 1.00
M 0.00000 16 (1219.12, 415.03, 0.00), (20.00, 18.00), 1.00
M 0.00000 17 (1186.73, 156.37, 0.00), (20.00, 18.00), 1.00
M 0.00000 18 (1420.03, 247.77, 0.00), (20.00, 18.00), 1.00
M 0.00000 19 (1475.03, 494.91, 0.00), (20.00, 18.00), 1.00
s 0.008749440 _0_ RTR  --- 0 message 32 [0 0 0 0] ------- [0:255 -1:255 32 0] 
s 0.009044440 _0_ MAC  --- 0 message 84 [0 ffffffff 0 800] ------- [0:255 -1:255 32 0] 
r 0.009717136 _3_ MAC  --- 0 message 32 [0 ffffffff 0 800] ------- [0:255 -1:255 32 0] 
r 0.009717323 _2_ MAC  --- 0 message 32 [0 ffffffff 0 800] ------- [0:255 -1:255 32 0] 
r 0.009717325 _1_ MAC  --- 0 message 32 [0 ffffffff 0 800] ------- [0:255 -1:255 32 0] 
r 0.009717821 _4_ MAC  --- 0 message 32 [0 ffffffff 0 800] ------- [0:255 -1:255 32 0] 
r 0.009717942 _7_ MAC  --- 0 message 32 [0 ffffffff 0 800] ------- [0:255 -1:255 32 0] 
r 0.009718175 _6_ MAC  --- 0 message 32 [0 ffffffff 0 800] ------- [0:255 -1:255 32 0] 
r 0.009718360 _5_ MAC  --- 0 message 32 [0 ffffffff 0 800] ------- [0:255 -1:255 32 0] 
r 0.009718538 _9_ MAC  --- 0 message 32 [0 ffffffff 0 800] ------- [0:255 -1:255 32 0] 
r 0.009718853 _8_ MAC  --- 0 message 32 [0 ffffffff 0 800] ------- [0:255 -1:255 32 0] 
r 0.009718858 _10_ MAC  --- 0 message 32 [0 ffffffff 0 800] ------- [0:255 -1:255 32 0] 
r 0.009719150 _11_ MAC  --- 0 message 32 [0 ffffffff 0 800] ------- [0:255 -1:255 32 0] 
r 0.009719210 _14_ MAC  --- 0 message 32 [0 ffffffff 0 800] ------- [0:255 -1:255 32 0] 
r 0.009719308 _13_ MAC  --- 0 message 32 [0 ffffffff 0 800] ------- [0:255 -1:255 32 0] 
r 0.009719500 _12_ MAC  --- 0 message 32 [0 ffffffff 0 800] ------- [0:255 -1:255 32 0] 
r 0.009720081 _16_ MAC  --- 0 message 32 [0 ffffffff 0 800] ------- [0:255 -1:255 32 0] 
r 0.009720145 _17_ MAC  --- 0 message 32 [0 ffffffff 0 800] ------- [0:255 -1:255 32 0] 
r 0.009720192 _15_ MAC  --- 0 message 32 [0 ffffffff 0 800] ------- [0:255 -1:255 32 0] 
r 0.009720821 _18_ MAC  --- 0 message 32 [0 ffffffff 0 800] ------- [0:255 -1:255 32 0] 
r 0.009720922 _19_ MAC  --- 0 message 32 [0 ffffffff 0 800] ------- [0:255 -1:255 32 0] 
r 0.009742136 _3_ RTR  --- 0 message 32 [0 ffffffff 0 800] ------- [0:255 -1:255 32 0] 
r 0.009742323 _2_ RTR  --- 0 message 32 [0 ffffffff 0 800] ------- [0:255 -1:255 32 0] 
r 0.009742325 _1_ RTR  --- 0 message 32 [0 ffffffff 0 800] ------- [0:255 -1:255 32 0] 
r 0.009742821 _4_ RTR  --- 0 message 32 [0 ffffffff 0 800] ------- [0:255 -1:255 32 0] 
r 0.009742942 _7_ RTR  --- 0 message 32 [0 ffffffff 0 800] ------- [0:255 -1:255 32 0] 
r 0.009743175 _6_ RTR  --- 0 message 32 [0 ffffffff 0 800] ------- [0:255 -1:255 32 0] 
r 0.009743360 _5_ RTR  --- 0 message 32 [0 ffffffff 0 800] ------- [0:255 -1:255 32 0] 
r 0.009743538 _9_ RTR  --- 0 message 32 [0 ffffffff 0 800] ------- [0:255 -1:255 32 0] 
r 0.009743853 _8_ RTR  --- 0 message 32 [0 ffffffff 0 800] ------- [0:255 -1:255 32 0] 
r 0.009743858 _10_ RTR  --- 0 message 32 [0 ffffffff 0 800] ------- [0:255 -1:255 32 0] 
r 0.009744150 _11_ RTR  --- 0 message 32 [0 ffffffff 0 800] ------- [0:255 -1:255 32 0] 
r 0.009744210 _14_ RTR  --- 0 message 32 [0 ffffffff 0 800] ------- [0:255 -1:255 32 0] 
r 0.009744308 _13_ RTR  --- 0 message 32 [0 ffffffff 0 800] ------- [0:255 -1:255 32 0] 
r 0.009744500 _12_ RTR  --- 0 message 32 [0 ffffffff 0 800] ------- [0:255 -1:255 32 0] 
r 0.009745081 _16_ RTR  --- 0 message 32 [0 ffffffff 0 800] ------- [0:255 -1:255 32 0] 
r 0.009745145 _17_ RTR  --- 0 message 32 [0 ffffffff 0 800] ------- [0:255 -1:255 32 0] 
r 0.009745192 _15_ RTR  --- 0 message 32 [0 ffffffff 0 800] ------- [0:255 -1:255 32 0] 
r 0.009745821 _18_ RTR  --- 0 message 32 [0 ffffffff 0 800] ------- [0:255 -1:255 32 0] 
r 0.009745922 _19_ RTR  --- 0 message 32 [0 ffffffff 0 800] ------- [0:255 -1:255 32 0] 
s 0.033595809 _2_ RTR  --- 1 message 32 [0 0 0 0] ------- [2:255 -1:255 32 0] 
s 0.033850809 _2_ MAC  --- 1 message 84 [0 ffffffff 2 800] ------- [2:255 -1:255 32 0] 
r 0.034523466 _7_ MAC  --- 1 message 32 [0 ffffffff 2 800] ------- [2:255 -1:255 32 0] 
r 0.034523665 _3_ MAC  --- 1 message 32 [0 ffffffff 2 800] ------- [2:255 -1:255 32 0] 
r 0.034523683 _1_ MAC  --- 1 message 32 [0 ffffffff 2 800] ------- [2:255 -1:255 32 0] 
r 0.034523692 _0_ MAC  --- 1 message 32 [0 ffffffff 2 800] ------- [2:255 -1:255 32 0] 
r 0.034523777 _6_ MAC  --- 1 message 32 [0 ffffffff 2 800] ------- [2:255 -1:255 32 0] 
r 0.034524027 _9_ MAC  --- 1 message 32 [0 ffffffff 2 800] ------- [2:255 -1:255 32 0] 
r 0.034524115 _4_ MAC  --- 1 message 32 [0 ffffffff 2 800] ------- [2:255 -1:255 32 0] 
r 0.034524206 _5_ MAC  --- 1 message 32 [0 ffffffff 2 800] ------- [2:255 -1:255 32 0] 
r 0.034524419 _10_ MAC  --- 1 message 32 [0 ffffffff 2 800] ------- [2:255 -1:255 32 0] 
r 0.034524421 _8_ MAC  --- 1 message 32 [0 ffffffff 2 800] ------- [2:255 -1:255 32 0] 
r 0.034524705 _14_ MAC  --- 1 message 32 [0 ffffffff 2 800] ------- [2:255 -1:255 32 0] 
r 0.034524801 _13_ MAC  --- 1 message 32 [0 ffffffff 2 800] ------- [2:255 -1:255 32 0] 
r 0.034524851 _11_ MAC  --- 1 message 32 [0 ffffffff 2 800] ------- [2:255 -1:255 32 0] 
r 0.034525074 _12_ MAC  --- 1 message 32 [0 ffffffff 2 800] ------- [2:255 -1:255 32 0] 
r 0.034525584 _16_ MAC  --- 1 message 32 [0 ffffffff 2 800] ------- [2:255 -1:255 32 0] 
r 0.034525679 _15_ MAC  --- 1 message 32 [0 ffffffff 2 800] ------- [2:255 -1:255 32 0] 
r 0.034525724 _17_ MAC  --- 1 message 32 [0 ffffffff 2 800] ------- [2:255 -1:255 32 0] 
r 0.034526352 _18_ MAC  --- 1 message 32 [0 ffffffff 2 800] ------- [2:255 -1:255 32 0] 
r 0.034526414 _19_ MAC  --- 1 message 32 [0 ffffffff 2 800] ------- [2:255 -1:255 32 0] 
r 0.034548466 _7_ RTR  --- 1 message 32 [0 ffffffff 2 800] ------- [2:255 -1:255 32 0] 
r 0.034548665 _3_ RTR  --- 1 message 32 [0 ffffffff 2 800] ------- [2:255 -1:255 32 0] 
r 0.034548683 _1_ RTR  --- 1 message 32 [0 ffffffff 2 800] ------- [2:255 -1:255 32 0] 
r 0.034548692 _0_ RTR  --- 1 message 32 [0 ffffffff 2 800] ------- [2:255 -1:255 32 0] 
r 0.034548777 _6_ RTR  --- 1 message 32 [0 ffffffff 2 800] ------- [2:255 -1:255 32 0] 
r 0.034549027 _9_ RTR  --- 1 message 32 [0 ffffffff 2 800] ------- [2:255 -1:255 32 0] 
r 0.034549115 _4_ RTR  --- 1 message 32 [0 ffffffff 2 800] ------- [2:255 -1:255 32 0] 
r 0.034549206 _5_ RTR  --- 1 message 32 [0 ffffffff 2 800] ------- [2:255 -1:255 32 0] 
r 0.034549419 _10_ RTR  --- 1 message 32 [0 ffffffff 2 800] ------- [2:255 -1:255 32 0] 
r 0.034549421 _8_ RTR  --- 1 message 32 [0 ffffffff 2 800] ------- [2:255 -1:255 32 0] 
r 0.034549705 _14_ RTR  --- 1 message 32 [0 ffffffff 2 800] ------- [2:255 -1:255 32 0] 
r 0.034549801 _13_ RTR  --- 1 message 32 [0 ffffffff 2 800] ------- [2:255 -1:255 32 0] 
r 0.034549851 _11_ RTR  --- 1 message 32 [0 ffffffff 2 800] ------- [2:255 -1:255 32 0] 
r 0.034550074 _12_ RTR  --- 1 message 32 [0 ffffffff 2 800] ------- [2:255 -1:255 32 0] 
r 0.034550584 _16_ RTR  --- 1 message 32 [0 ffffffff 2 800] ------- [2:255 -1:255 32 0] 
r 0.034550679 _15_ RTR  --- 1 message 32 [0 ffffffff 2 800] ------- [2:255 -1:255 32 0] 
r 0.034550724 _17_ RTR  --- 1 message 32 [0 ffffffff 2 800] ------- [2:255 -1:255 32 0] 
r 0.034551352 _18_ RTR  --- 1 message 32 [0 ffffffff 2 800] ------- [2:255 -1:255 32 0] 
r 0.034551414 _19_ RTR  --- 1 message 32 [0 ffffffff 2 800] ------- [2:255 -1:255 32 0] 
s 0.093987367 _13_ RTR  --- 2 message 32 [0 0 0 0] ------- [13:255 -1:255 32 0] 
s 0.094422367 _13_ MAC  --- 2 message 84 [0 ffffffff d 800] ------- [13:255 -1:255 32 0] 
r 0.095094992 _14_ MAC  --- 2 message 32 [0 ffffffff d 800] ------- [13:255 -1:255 32 0] 
r 0.095095115 _10_ MAC  --- 2 message 32 [0 ffffffff d 800] ------- [13:255 -1:255 32 0] 
r 0.095095167 _16_ MAC  --- 2 message 32 [0 ffffffff d 800] ------- [13:255 -1:255 32 0] 
r 0.095095205 _12_ MAC  --- 2 message 32 [0 ffffffff d 800] ------- [13:255 -1:255 32 0] 
r 0.095095229 _9_ MAC  --- 2 message 32 [0 ffffffff d 800] ------- [13:255 -1:255 32 0] 
r 0.095095369 _15_ MAC  --- 2 message 32 [0 ffffffff d 800] ------- [13:255 -1:255 32 0] 
r 0.095095636 _8_ MAC  --- 2 message 32 [0 ffffffff d 800] ------- [13:255 -1:255 32 0] 
r 0.095095647 _6_ MAC  --- 2 message 32 [0 ffffffff d 800] ------- [13:255 -1:255 32 0] 
r 0.095095652 _17_ MAC  --- 2 message 32 [0 ffffffff d 800] ------- [13:255 -1:255 32 0] 
r 0.095095734 _11_ MAC  --- 2 message 32 [0 ffffffff d 800] ------- [13:255 -1:255 32 0] 
r 0.095095863 _7_ MAC  --- 2 message 32 [0 ffffffff d 800] ------- [13:255 -1:255 32 0] 
r 0.095095982 _19_ MAC  --- 2 message 32 [0 ffffffff d 800] ------- [13:255 -1:255 32 0] 
r 0.095096008 _18_ MAC  --- 2 message 32 [0 ffffffff d 800] ------- [13:255 -1:255 32 0] 
r 0.095096100 _5_ MAC  --- 2 message 32 [0 ffffffff d 800] ------- [13:255 -1:255 32 0] 
r 0.095096360 _2_ MAC  --- 2 message 32 [0 ffffffff d 800] ------- [13:255 -1:255 32 0] 
r 0.095096856 _4_ MAC  --- 2 message 32 [0 ffffffff d 800] ------- [13:255 -1:255 32 0] 
r 0.095096939 _3_ MAC  --- 2 message 32 [0 ffffffff d 800] ------- [13:255 -1:255 32 0] 
r 0.095096991 _1_ MAC  --- 2 message 32 [0 ffffffff d 800] ------- [13:255 -1:255 32 0] 
r 0.095097235 _0_ MAC  --- 2 message 32 [0 ffffffff d 800] ------- [13:255 -1:255 32 0] 
r 0.095119992 _14_ RTR  --- 2 message 32 [0 ffffffff d 800] ------- [13:255 -1:255 32 0] 
r 0.095120115 _10_ RTR  --- 2 message 32 [0 ffffffff d 800] ------- [13:255 -1:255 32 0] 
r 0.095120167 _16_ RTR  --- 2 message 32 [0 ffffffff d 800] ------- [13:255 -1:255 32 0] 
r 0.095120205 _12_ RTR  --- 2 message 32 [0 ffffffff d 800] ------- [13:255 -1:255 32 0] 
r 0.095120229 _9_ RTR  --- 2 message 32 [0 ffffffff d 800] ------- [13:255 -1:255 32 0] 
r 0.095120369 _15_ RTR  --- 2 message 32 [0 ffffffff d 800] ------- [13:255 -1:255 32 0] 
r 0.095120636 _8_ RTR  --- 2 message 32 [0 ffffffff d 800] ------- [13:255 -1:255 32 0] 
r 0.095120647 _6_ RTR  --- 2 message 32 [0 ffffffff d 800] ------- [13:255 -1:255 32 0] 
r 0.095120652 _17_ RTR  --- 2 message 32 [0 ffffffff d 800] ------- [13:255 -1:255 32 0] 
r 0.095120734 _11_ RTR  --- 2 message 32 [0 ffffffff d 800] ------- [13:255 -1:255 32 0] 
r 0.095120863 _7_ RTR  --- 2 message 32 [0 ffffffff d 800] ------- [13:255 -1:255 32 0] 
r 0.095120982 _19_ RTR  --- 2 message 32 [0 ffffffff d 800] ------- [13:255 -1:255 32 0] 
r 0.095121008 _18_ RTR  --- 2 message 32 [0 ffffffff d 800] ------- [13:255 -1:255 32 0] 
r 0.095121100 _5_ RTR  --- 2 message 32 [0 ffffffff d 800] ------- [13:255 -1:255 32 0] 
r 0.095121360 _2_ RTR  --- 2 message 32 [0 ffffffff d 800] ------- [13:255 -1:255 32 0] 
r 0.095121856 _4_ RTR  --- 2 message 32 [0 ffffffff d 800] ------- [13:255 -1:255 32 0] 
r 0.095121939 _3_ RTR  --- 2 message 32 [0 ffffffff d 800] ------- [13:255 -1:255 32 0] 
r 0.095121991 _1_ RTR  --- 2 message 32 [0 ffffffff d 800] ------- [13:255 -1:255 32 0] 
r 0.095122235 _0_ RTR  --- 2 message 32 [0 ffffffff d 800] ------- [13:255 -1:255 32 0] 
s 0.183018832 _3_ RTR  --- 3 message 32 [0 0 0 0] ------- [3:255 -1:255 32 0] 
s 0.183233832 _3_ MAC  --- 3 message 84 [0 ffffffff 3 800] ------- [3:255 -1:255 32 0] 
r 0.183906518 _4_ MAC  --- 3 message 32 [0 ffffffff 3 800] ------- [3:255 -1:255 32 0] 
r 0.183906528 _0_ MAC  --- 3 message 32 [0 ffffffff 3 800] ------- [3:255 -1:255 32 0] 
r 0.183906688 _2_ MAC  --- 3 message 32 [0 ffffffff 3 800] ------- [3:255 -1:255 32 0] 
r 0.183907135 _5_ MAC  --- 3 message 32 [0 ffffffff 3 800] ------- [3:255 -1:255 32 0] 
r 0.183907146 _6_ MAC  --- 3 message 32 [0 ffffffff 3 800] ------- [3:255 -1:255 32 0] 
r 0.183907228 _1_ MAC  --- 3 message 32 [0 ffffffff 3 800] ------- [3:255 -1:255 32 0] 
r 0.183907318 _7_ MAC  --- 3 message 32 [0 ffffffff 3 800] ------- [3:255 -1:255 32 0] 
r 0.183907772 _9_ MAC  --- 3 message 32 [0 ffffffff 3 800] ------- [3:255 -1:255 32 0] 
r 0.183907823 _10_ MAC  --- 3 message 32 [0 ffffffff 3 800] ------- [3:255 -1:255 32 0] 
r 0.183907968 _11_ MAC  --- 3 message 32 [0 ffffffff 3 800] ------- [3:255 -1:255 32 0] 
r 0.183908277 _8_ MAC  --- 3 message 32 [0 ffffffff 3 800] ------- [3:255 -1:255 32 0] 
r 0.183908403 _13_ MAC  --- 3 message 32 [0 ffffffff 3 800] ------- [3:255 -1:255 32 0] 
r 0.183908421 _12_ MAC  --- 3 message 32 [0 ffffffff 3 800] ------- [3:255 -1:255 32 0] 
r 0.183908458 _14_ MAC  --- 3 message 32 [0 ffffffff 3 800] ------- [3:255 -1:255 32 0] 
r 0.183909045 _17_ MAC  --- 3 message 32 [0 ffffffff 3 800] ------- [3:255 -1:255 32 0] 
r 0.183909119 _16_ MAC  --- 3 message 32 [0 ffffffff 3 800] ------- [3:255 -1:255 32 0] 
r 0.183909364 _15_ MAC  --- 3 message 32 [0 ffffffff 3 800] ------- [3:255 -1:255 32 0] 
r 0.183909782 _18_ MAC  --- 3 message 32 [0 ffffffff 3 800] ------- [3:255 -1:255 32 0] 
r 0.183909998 _19_ MAC  --- 3 message 32 [0 ffffffff 3 800] ------- [3:255 -1:255 32 0] 
r 0.183931518 _4_ RTR  --- 3 message 32 [0 ffffffff 3 800] ------- [3:255 -1:255 32 0] 
r 0.183931528 _0_ RTR  --- 3 message 32 [0 ffffffff 3 800] ------- [3:255 -1:255 32 0] 
r 0.183931688 _2_ RTR  --- 3 message 32 [0 ffffffff 3 800] ------- [3:255 -1:255 32 0] 
r 0.183932135 _5_ RTR  --- 3 message 32 [0 ffffffff 3 800] ------- [3:255 -1:255 32 0] 
r 0.183932146 _6_ RTR  --- 3 message 32 [0 ffffffff 3 800] ------- [3:255 -1:255 32 0] 
r 0.183932228 _1_ RTR  --- 3 message 32 [0 ffffffff 3 800] ------- [3:255 -1:255 32 0] 
r 0.183932318 _7_ RTR  --- 3 message 32 [0 ffffffff 3 800] ------- [3:255 -1:255 32 0] 
r 0.183932772 _9_ RTR  --- 3 message 32 [0 ffffffff 3 800] ------- [3:255 -1:255 32 0] 
r 0.183932823 _10_ RTR  --- 3 message 32 [0 ffffffff 3 800] ------- [3:255 -1:255 32 0] 
r 0.183932968 _11_ RTR  --- 3 message 32 [0 ffffffff 3 800] ------- [3:255 -1:255 32 0] 
r 0.183933277 _8_ RTR  --- 3 message 32 [0 ffffffff 3 800] ------- [3:255 -1:255 32 0] 
r 0.183933403 _13_ RTR  --- 3 message 32 [0 ffffffff 3 800] ------- [3:255 -1:255 32 0] 
r 0.183933421 _12_ RTR  --- 3 message 32 [0 ffffffff 3 800] ------- [3:255 -1:255 32 0] 
r 0.183933458 _14_ RTR  --- 3 message 32 [0 ffffffff 3 800] ------- [3:255 -1:255 32 0] 
r 0.183934045 _17_ RTR  --- 3 message 32 [0 ffffffff 3 800] ------- [3:255 -1:255 32 0] 
r 0.183934119 _16_ RTR  --- 3 message 32 [0 ffffffff 3 800] ------- [3:255 -1:255 32 0] 
r 0.183934364 _15_ RTR  --- 3 message 32 [0 ffffffff 3 800] ------- [3:255 -1:255 32 0] 
r 0.183934782 _18_ RTR  --- 3 message 32 [0 ffffffff 3 800] ------- [3:255 -1:255 32 0] 
r 0.183934998 _19_ RTR  --- 3 message 32 [0 ffffffff 3 800] ------- [3:255 -1:255 32 0] 
s 0.189369694 _19_ RTR  --- 4 message 32 [0 0 0 0] ------- [19:255 -1:255 32 0] 
s 0.189544694 _19_ MAC  --- 4 message 84 [0 ffffffff 13 800] ------- [19:255 -1:255 32 0] 
r 0.190217538 _18_ MAC  --- 4 message 32 [0 ffffffff 13 800] ------- [19:255 -1:255 32 0] 
r 0.190217587 _16_ MAC  --- 4 message 32 [0 ffffffff 13 800] ------- [19:255 -1:255 32 0] 
r 0.190217604 _15_ MAC  --- 4 message 32 [0 ffffffff 13 800] ------- [19:255 -1:255 32 0] 
r 0.190218176 _17_ MAC  --- 4 message 32 [0 ffffffff 13 800] ------- [19:255 -1:255 32 0] 
r 0.190218309 _13_ MAC  --- 4 message 32 [0 ffffffff 13 800] ------- [19:255 -1:255 32 0] 
r 0.190218467 _12_ MAC  --- 4 message 32 [0 ffffffff 13 800] ------- [19:255 -1:255 32 0] 
r 0.190218556 _14_ MAC  --- 4 message 32 [0 ffffffff 13 800] ------- [19:255 -1:255 32 0] 
r 0.190218901 _10_ MAC  --- 4 message 32 [0 ffffffff 13 800] ------- [19:255 -1:255 32 0] 
r 0.190219120 _9_ MAC  --- 4 message 32 [0 ffffffff 13 800] ------- [19:255 -1:255 32 0] 
r 0.190219174 _11_ MAC  --- 4 message 32 [0 ffffffff 13 800] ------- [19:255 -1:255 32 0] 
r 0.190219218 _8_ MAC  --- 4 message 32 [0 ffffffff 13 800] ------- [19:255 -1:255 32 0] 
r 0.190219548 _6_ MAC  --- 4 message 32 [0 ffffffff 13 800] ------- [19:255 -1:255 32 0] 
r 0.190219763 _7_ MAC  --- 4 message 32 [0 ffffffff 13 800] ------- [19:255 -1:255 32 0] 
r 0.190219850 _5_ MAC  --- 4 message 32 [0 ffffffff 13 800] ------- [19:255 -1:255 32 0] 
r 0.190220298 _2_ MAC  --- 4 message 32 [0 ffffffff 13 800] ------- [19:255 -1:255 32 0] 
r 0.190220689 _4_ MAC  --- 4 message 32 [0 ffffffff 13 800] ------- [19:255 -1:255 32 0] 
r 0.190220860 _3_ MAC  --- 4 message 32 [0 ffffffff 13 800] ------- [19:255 -1:255 32 0] 
r 0.190220874 _1_ MAC  --- 4 message 32 [0 ffffffff 13 800] ------- [19:255 -1:255 32 0] 
r 0.190221176 _0_ MAC  --- 4 message 32 [0 ffffffff 13 800] ------- [19:255 -1:255 32 0] 
r 0.190242538 _18_ RTR  --- 4 message 32 [0 ffffffff 13 800] ------- [19:255 -1:255 32 0] 
r 0.190242587 _16_ RTR  --- 4 message 32 [0 ffffffff 13 800] ------- [19:255 -1:255 32 0] 
r 0.190242604 _15_ RTR  --- 4 message 32 [0 ffffffff 13 800] ------- [19:255 -1:255 32 0] 
r 0.190243176 _17_ RTR  --- 4 message 32 [0 ffffffff 13 800] ------- [19:255 -1:255 32 0] 
r 0.190243309 _13_ RTR  --- 4 message 32 [0 ffffffff 13 800] ------- [19:255 -1:255 32 0] 
r 0.190243467 _12_ RTR  --- 4 message 32 [0 ffffffff 13 800] ------- [19:255 -1:255 32 0] 
r 0.190243556 _14_ RTR  --- 4 message 32 [0 ffffffff 13 800] ------- [19:255 -1:255 32 0] 
r 0.190243901 _10_ RTR  --- 4 message 32 [0 ffffffff 13 800] ------- [19:255 -1:255 32 0] 
r 0.190244120 _9_ RTR  --- 4 message 32 [0 ffffffff 13 800] ------- [19:255 -1:255 32 0] 
r 0.190244174 _11_ RTR  --- 4 message 32 [0 ffffffff 13 800] ------- [19:255 -1:255 32 0] 
r 0.190244218 _8_ RTR  --- 4 message 32 [0 ffffffff 13 800] ------- [19:255 -1:255 32 0] 
r 0.190244548 _6_ RTR  --- 4 message 32 [0 ffffffff 13 800] ------- [19:255 -1:255 32 0] 
r 0.190244763 _7_ RTR  --- 4 message 32 [0 ffffffff 13 800] ------- [19:255 -1:255 32 0] 
r 0.190244850 _5_ RTR  --- 4 message 32 [0 ffffffff 13 800] ------- [19:255 -1:255 32 0] 
r 0.190245298 _2_ RTR  --- 4 message 32 [0 ffffffff 13 800] ------- [19:255 -1:255 32 0] 
r 0.190245689 _4_ RTR  --- 4 message 32 [0 ffffffff 13 800] ------- [19:255 -1:255 32 0] 
r 0.190245860 _3_ RTR  --- 4 message 32 [0 ffffffff 13 800] ------- [19:255 -1:255 32 0] 
r 0.190245874 _1_ RTR  --- 4 message 32 [0 ffffffff 13 800] ------- [19:255 -1:255 32 0] 
r 0.190246176 _0_ RTR  --- 4 message 32 [0 ffffffff 13 800] ------- [19:255 -1:255 32 0] 
s 0.237079147 _15_ RTR  --- 5 message 32 [0 0 0 0] ------- [15:255 -1:255 32 0] 
s 0.237734147 _15_ MAC  --- 5 message 84 [0 ffffffff f 800] ------- [15:255 -1:255 32 0] 
r 0.238406918 _16_ MAC  --- 5 message 32 [0 ffffffff f 800] ------- [15:255 -1:255 32 0] 
r 0.238407057 _19_ MAC  --- 5 message 32 [0 ffffffff f 800] ------- [15:255 -1:255 32 0] 
r 0.238407148 _13_ MAC  --- 5 message 32 [0 ffffffff f 800] ------- [15:255 -1:255 32 0] 
r 0.238407158 _14_ MAC  --- 5 message 32 [0 ffffffff f 800] ------- [15:255 -1:255 32 0] 
r 0.238407591 _18_ MAC  --- 5 message 32 [0 ffffffff f 800] ------- [15:255 -1:255 32 0] 
r 0.238407718 _12_ MAC  --- 5 message 32 [0 ffffffff f 800] ------- [15:255 -1:255 32 0] 
r 0.238407777 _8_ MAC  --- 5 message 32 [0 ffffffff f 800] ------- [15:255 -1:255 32 0] 
r 0.238407787 _17_ MAC  --- 5 message 32 [0 ffffffff f 800] ------- [15:255 -1:255 32 0] 
r 0.238407800 _9_ MAC  --- 5 message 32 [0 ffffffff f 800] ------- [15:255 -1:255 32 0] 
r 0.238407882 _10_ MAC  --- 5 message 32 [0 ffffffff f 800] ------- [15:255 -1:255 32 0] 
r 0.238408395 _11_ MAC  --- 5 message 32 [0 ffffffff f 800] ------- [15:255 -1:255 32 0] 
r 0.238408416 _6_ MAC  --- 5 message 32 [0 ffffffff f 800] ------- [15:255 -1:255 32 0] 
r 0.238408425 _7_ MAC  --- 5 message 32 [0 ffffffff f 800] ------- [15:255 -1:255 32 0] 
r 0.238408874 _5_ MAC  --- 5 message 32 [0 ffffffff f 800] ------- [15:255 -1:255 32 0] 
r 0.238409016 _2_ MAC  --- 5 message 32 [0 ffffffff f 800] ------- [15:255 -1:255 32 0] 
r 0.238409500 _1_ MAC  --- 5 message 32 [0 ffffffff f 800] ------- [15:255 -1:255 32 0] 
r 0.238409635 _4_ MAC  --- 5 message 32 [0 ffffffff f 800] ------- [15:255 -1:255 32 0] 
r 0.238409679 _3_ MAC  --- 5 message 32 [0 ffffffff f 800] ------- [15:255 -1:255 32 0] 
r 0.238409898 _0_ MAC  --- 5 message 32 [0 ffffffff f 800] ------- [15:255 -1:255 32 0] 
r 0.238431918 _16_ RTR  --- 5 message 32 [0 ffffffff f 800] ------- [15:255 -1:255 32 0] 
r 0.238432057 _19_ RTR  --- 5 message 32 [0 ffffffff f 800] ------- [15:255 -1:255 32 0] 
r 0.238432148 _13_ RTR  --- 5 message 32 [0 ffffffff f 800] ------- [15:255 -1:255 32 0] 
r 0.238432158 _14_ RTR  --- 5 message 32 [0 ffffffff f 800] ------- [15:255 -1:255 32 0] 
r 0.238432591 _18_ RTR  --- 5 message 32 [0 ffffffff f 800] ------- [15:255 -1:255 32 0] 
r 0.238432718 _12_ RTR  --- 5 message 32 [0 ffffffff f 800] ------- [15:255 -1:255 32 0] 
r 0.238432777 _8_ RTR  --- 5 message 32 [0 ffffffff f 800] ------- [15:255 -1:255 32 0] 
r 0.238432787 _17_ RTR  --- 5 message 32 [0 ffffffff f 800] ------- [15:255 -1:255 32 0] 
r 0.238432800 _9_ RTR  --- 5 message 32 [0 ffffffff f 800] ------- [15:255 -1:255 32 0] 
r 0.238432882 _10_ RTR  --- 5 message 32 [0 ffffffff f 800] ------- [15:255 -1:255 32 0] 
r 0.238433395 _11_ RTR  --- 5 message 32 [0 ffffffff f 800] ------- [15:255 -1:255 32 0] 
r 0.238433416 _6_ RTR  --- 5 message 32 [0 ffffffff f 800] ------- [15:255 -1:255 32 0] 
r 0.238433425 _7_ RTR  --- 5 message 32 [0 ffffffff f 800] ------- [15:255 -1:255 32 0] 
r 0.238433874 _5_ RTR  --- 5 message 32 [0 ffffffff f 800] ------- [15:255 -1:255 32 0] 
r 0.238434016 _2_ RTR  --- 5 message 32 [0 ffffffff f 800] ------- [15:255 -1:255 32 0] 
r 0.238434500 _1_ RTR  --- 5 message 32 [0 ffffffff f 800] ------- [15:255 -1:255 32 0] 
r 0.238434635 _4_ RTR  --- 5 message 32 [0 ffffffff f 800] ------- [15:255 -1:255 32 0] 
r 0.238434679 _3_ RTR  --- 5 message 32 [0 ffffffff f 800] ------- [15:255 -1:255 32 0] 
r 0.238434898 _0_ RTR  --- 5 message 32 [0 ffffffff f 800] ------- [15:255 -1:255 32 0] 
s 0.328398897 _12_ RTR  --- 6 message 32 [0 0 0 0] ------- [12:255 -1:255 32 0] 
s 0.328973897 _12_ MAC  --- 6 message 84 [0 ffffffff c 800] ------- [12:255 -1:255 32 0] 
r 0.329646547 _17_ MAC  --- 6 message 32 [0 ffffffff c 800] ------- [12:255 -1:255 32 0] 
r 0.329646552 _10_ MAC  --- 6 message 32 [0 ffffffff c 800] ------- [12:255 -1:255 32 0] 
r 0.329646609 _11_ MAC  --- 6 message 32 [0 ffffffff c 800] ------- [12:255 -1:255 32 0] 
r 0.329646734 _13_ MAC  --- 6 message 32 [0 ffffffff c 800] ------- [12:255 -1:255 32 0] 
r 0.329646812 _16_ MAC  --- 6 message 32 [0 ffffffff c 800] ------- [12:255 -1:255 32 0] 
r 0.329647222 _6_ MAC  --- 6 message 32 [0 ffffffff c 800] ------- [12:255 -1:255 32 0] 
r 0.329647266 _18_ MAC  --- 6 message 32 [0 ffffffff c 800] ------- [12:255 -1:255 32 0] 
r 0.329647318 _5_ MAC  --- 6 message 32 [0 ffffffff c 800] ------- [12:255 -1:255 32 0] 
r 0.329647350 _9_ MAC  --- 6 message 32 [0 ffffffff c 800] ------- [12:255 -1:255 32 0] 
r 0.329647352 _14_ MAC  --- 6 message 32 [0 ffffffff c 800] ------- [12:255 -1:255 32 0] 
r 0.329647468 _15_ MAC  --- 6 message 32 [0 ffffffff c 800] ------- [12:255 -1:255 32 0] 
r 0.329647670 _19_ MAC  --- 6 message 32 [0 ffffffff c 800] ------- [12:255 -1:255 32 0] 
r 0.329647867 _7_ MAC  --- 6 message 32 [0 ffffffff c 800] ------- [12:255 -1:255 32 0] 
r 0.329647941 _8_ MAC  --- 6 message 32 [0 ffffffff c 800] ------- [12:255 -1:255 32 0] 
r 0.329648161 _2_ MAC  --- 6 message 32 [0 ffffffff c 800] ------- [12:255 -1:255 32 0] 
r 0.329648183 _4_ MAC  --- 6 message 32 [0 ffffffff c 800] ------- [12:255 -1:255 32 0] 
r 0.329648486 _3_ MAC  --- 6 message 32 [0 ffffffff c 800] ------- [12:255 -1:255 32 0] 
r 0.329648946 _1_ MAC  --- 6 message 32 [0 ffffffff c 800] ------- [12:255 -1:255 32 0] 
r 0.329648955 _0_ MAC  --- 6 message 32 [0 ffffffff c 800] ------- [12:255 -1:255 32 0] 
r 0.329671547 _17_ RTR  --- 6 message 32 [0 ffffffff c 800] ------- [12:255 -1:255 32 0] 
r 0.329671552 _10_ RTR  --- 6 message 32 [0 ffffffff c 800] ------- [12:255 -1:255 32 0] 
r 0.329671609 _11_ RTR  --- 6 message 32 [0 ffffffff c 800] ------- [12:255 -1:255 32 0] 
r 0.329671734 _13_ RTR  --- 6 message 32 [0 ffffffff c 800] ------- [12:255 -1:255 32 0] 
r 0.329671812 _16_ RTR  --- 6 message 32 [0 ffffffff c 800] ------- [12:255 -1:255 32 0] 
r 0.329672222 _6_ RTR  --- 6 message 32 [0 ffffffff c 800] ------- [12:255 -1:255 32 0] 
r 0.329672266 _18_ RTR  --- 6 message 32 [0 ffffffff c 800] ------- [12:255 -1:255 32 0] 
r 0.329672318 _5_ RTR  --- 6 message 32 [0 ffffffff c 800] ------- [12:255 -1:255 32 0] 
r 0.329672350 _9_ RTR  --- 6 message 32 [0 ffffffff c 800] ------- [12:255 -1:255 32 0] 
r 0.329672352 _14_ RTR  --- 6 message 32 [0 ffffffff c 800] ------- [12:255 -1:255 32 0] 
r 0.329672468 _15_ RTR  --- 6 message 32 [0 ffffffff c 800] ------- [12:255 -1:255 32 0] 
r 0.329672670 _19_ RTR  --- 6 message 32 [0 ffffffff c 800] ------- [12:255 -1:255 32 0] 
r 0.329672867 _7_ RTR  --- 6 message 32 [0 ffffffff c 800] ------- [12:255 -1:255 32 0] 
r 0.329672941 _8_ RTR  --- 6 message 32 [0 ffffffff c 800] ------- [12:255 -1:255 32 0] 
r 0.329673161 _2_ RTR  --- 6 message 32 [0 ffffffff c 800] ------- [12:255 -1:255 32 0] 
r 0.329673183 _4_ RTR  --- 6 message 32 [0 ffffffff c 800] ------- [12:255 -1:255 32 0] 
r 0.329673486 _3_ RTR  --- 6 message 32 [0 ffffffff c 800] ------- [12:255 -1:255 32 0] 
r 0.329673946 _1_ RTR  --- 6 message 32 [0 ffffffff c 800] ------- [12:255 -1:255 32 0] 
r 0.329673955 _0_ RTR  --- 6 message 32 [0 ffffffff c 800] ------- [12:255 -1:255 32 0] 
s 0.356296747 _18_ RTR  --- 7 message 32 [0 0 0 0] ------- [18:255 -1:255 32 0] 
s 0.356851747 _18_ MAC  --- 7 message 84 [0 ffffffff 12 800] ------- [18:255 -1:255 32 0] 
r 0.357524582 _17_ MAC  --- 7 message 32 [0 ffffffff 12 800] ------- [18:255 -1:255 32 0] 
r 0.357524590 _19_ MAC  --- 7 message 32 [0 ffffffff 12 800] ------- [18:255 -1:255 32 0] 
r 0.357524618 _16_ MAC  --- 7 message 32 [0 ffffffff 12 800] ------- [18:255 -1:255 32 0] 
r 0.357525116 _12_ MAC  --- 7 message 32 [0 ffffffff 12 800] ------- [18:255 -1:255 32 0] 
r 0.357525191 _15_ MAC  --- 7 message 32 [0 ffffffff 12 800] ------- [18:255 -1:255 32 0] 
r 0.357525387 _13_ MAC  --- 7 message 32 [0 ffffffff 12 800] ------- [18:255 -1:255 32 0] 
r 0.357525716 _10_ MAC  --- 7 message 32 [0 ffffffff 12 800] ------- [18:255 -1:255 32 0] 
r 0.357525734 _11_ MAC  --- 7 message 32 [0 ffffffff 12 800] ------- [18:255 -1:255 32 0] 
r 0.357525865 _14_ MAC  --- 7 message 32 [0 ffffffff 12 800] ------- [18:255 -1:255 32 0] 
r 0.357526245 _9_ MAC  --- 7 message 32 [0 ffffffff 12 800] ------- [18:255 -1:255 32 0] 
r 0.357526404 _6_ MAC  --- 7 message 32 [0 ffffffff 12 800] ------- [18:255 -1:255 32 0] 
r 0.357526527 _5_ MAC  --- 7 message 32 [0 ffffffff 12 800] ------- [18:255 -1:255 32 0] 
r 0.357526568 _8_ MAC  --- 7 message 32 [0 ffffffff 12 800] ------- [18:255 -1:255 32 0] 
r 0.357526867 _7_ MAC  --- 7 message 32 [0 ffffffff 12 800] ------- [18:255 -1:255 32 0] 
r 0.357527289 _2_ MAC  --- 7 message 32 [0 ffffffff 12 800] ------- [18:255 -1:255 32 0] 
r 0.357527396 _4_ MAC  --- 7 message 32 [0 ffffffff 12 800] ------- [18:255 -1:255 32 0] 
r 0.357527697 _3_ MAC  --- 7 message 32 [0 ffffffff 12 800] ------- [18:255 -1:255 32 0] 
r 0.357527993 _1_ MAC  --- 7 message 32 [0 ffffffff 12 800] ------- [18:255 -1:255 32 0] 
r 0.357528127 _0_ MAC  --- 7 message 32 [0 ffffffff 12 800] ------- [18:255 -1:255 32 0] 
r 0.357549582 _17_ RTR  --- 7 message 32 [0 ffffffff 12 800] ------- [18:255 -1:255 32 0] 
r 0.357549590 _19_ RTR  --- 7 message 32 [0 ffffffff 12 800] ------- [18:255 -1:255 32 0] 
r 0.357549618 _16_ RTR  --- 7 message 32 [0 ffffffff 12 800] ------- [18:255 -1:255 32 0] 
r 0.357550116 _12_ RTR  --- 7 message 32 [0 ffffffff 12 800] ------- [18:255 -1:255 32 0] 
r 0.357550191 _15_ RTR  --- 7 message 32 [0 ffffffff 12 800] ------- [18:255 -1:255 32 0] 
r 0.357550387 _13_ RTR  --- 7 message 32 [0 ffffffff 12 800] ------- [18:255 -1:255 32 0] 
r 0.357550716 _10_ RTR  --- 7 message 32 [0 ffffffff 12 800] ------- [18:255 -1:255 32 0] 
r 0.357550734 _11_ RTR  --- 7 message 32 [0 ffffffff 12 800] ------- [18:255 -1:255 32 0] 
r 0.357550865 _14_ RTR  --- 7 message 32 [0 ffffffff 12 800] ------- [18:255 -1:255 32 0] 
r 0.357551245 _9_ RTR  --- 7 message 32 [0 ffffffff 12 800] ------- [18:255 -1:255 32 0] 
r 0.357551404 _6_ RTR  --- 7 message 32 [0 ffffffff 12 800] ------- [18:255 -1:255 32 0] 
r 0.357551527 _5_ RTR  --- 7 message 32 [0 ffffffff 12 800] ------- [18:255 -1:255 32 0] 
r 0.357551568 _8_ RTR  --- 7 message 32 [0 ffffffff 12 800] ------- [18:255 -1:255 32 0] 
r 0.357551867 _7_ RTR  --- 7 message 32 [0 ffffffff 12 800] ------- [18:255 -1:255 32 0] 
r 0.357552289 _2_ RTR  --- 7 message 32 [0 ffffffff 12 800] ------- [18:255 -1:255 32 0] 
r 0.357552396 _4_ RTR  --- 7 message 32 [0 ffffffff 12 800] ------- [18:255 -1:255 32 0] 
r 0.357552697 _3_ RTR  --- 7 message 32 [0 ffffffff 12 800] ------- [18:255 -1:255 32 0] 
r 0.357552993 _1_ RTR  --- 7 message 32 [0 ffffffff 12 800] ------- [18:255 -1:255 32 0] 
r 0.357553127 _0_ RTR  --- 7 message 32 [0 ffffffff 12 800] ------- [18:255 -1:255 32 0] 
s 0.477970060 _8_ RTR  --- 8 message 32 [0 0 0 0] ------- [8:255 -1:255 32 0] 
s 0.478205060 _8_ MAC  --- 8 message 84 [0 ffffffff 8 800] ------- [8:255 -1:255 32 0] 
r 0.478877763 _14_ MAC  --- 8 message 32 [0 ffffffff 8 800] ------- [8:255 -1:255 32 0] 